VARIABLES = "X","Y","u"
ZONE I=101,J=101,F=POINT
0	0	1
0	0.01	0
0	0.02	0
0	0.03	0
0	0.04	0
0	0.05	0
0	0.06	0
0	0.07	0
0	0.08	0
0	0.09	0
0	0.1	0
0	0.11	0
0	0.12	0
0	0.13	0
0	0.14	0
0	0.15	0
0	0.16	0
0	0.17	0
0	0.18	0
0	0.19	0
0	0.2	0
0	0.21	0
0	0.22	0
0	0.23	0
0	0.24	0
0	0.25	0
0	0.26	0
0	0.27	0
0	0.28	0
0	0.29	0
0	0.3	0
0	0.31	0
0	0.32	0
0	0.33	0
0	0.34	0
0	0.35	0
0	0.36	0
0	0.37	0
0	0.38	0
0	0.39	0
0	0.4	0
0	0.41	0
0	0.42	0
0	0.43	0
0	0.44	0
0	0.45	0
0	0.46	0
0	0.47	0
0	0.48	0
0	0.49	0
0	0.5	0
0	0.51	0
0	0.52	0
0	0.53	0
0	0.54	0
0	0.55	0
0	0.56	0
0	0.57	0
0	0.58	0
0	0.59	0
0	0.6	0
0	0.61	0
0	0.62	0
0	0.63	0
0	0.64	0
0	0.65	0
0	0.66	0
0	0.67	0
0	0.68	0
0	0.69	0
0	0.7	0
0	0.71	0
0	0.72	0
0	0.73	0
0	0.74	0
0	0.75	0
0	0.76	0
0	0.77	0
0	0.78	0
0	0.79	0
0	0.8	0
0	0.81	0
0	0.82	0
0	0.83	0
0	0.84	0
0	0.85	0
0	0.86	0
0	0.87	0
0	0.88	0
0	0.89	0
0	0.9	0
0	0.91	0
0	0.92	0
0	0.93	0
0	0.94	0
0	0.95	0
0	0.96	0
0	0.97	0
0	0.98	0
0	0.99	0
0	1	0
0.01	0	1
0.01	0.01	0.499889
0.01	0.02	0.302124
0.01	0.03	0.209055
0.01	0.04	0.15805
0.01	0.05	0.12657
0.01	0.06	0.105364
0.01	0.07	0.0901373
0.01	0.08	0.0786758
0.01	0.09	0.0697322
0.01	0.1	0.062554
0.01	0.11	0.0566608
0.01	0.12	0.0517321
0.01	0.13	0.0475457
0.01	0.14	0.0439429
0.01	0.15	0.0408072
0.01	0.16	0.0380514
0.01	0.17	0.0356086
0.01	0.18	0.0334269
0.01	0.19	0.0314652
0.01	0.2	0.0296909
0.01	0.21	0.0280773
0.01	0.22	0.0266027
0.01	0.23	0.0252492
0.01	0.24	0.0240019
0.01	0.25	0.0228482
0.01	0.26	0.0217774
0.01	0.27	0.0207807
0.01	0.28	0.0198501
0.01	0.29	0.0189791
0.01	0.3	0.0181618
0.01	0.31	0.0173932
0.01	0.32	0.0166689
0.01	0.33	0.0159851
0.01	0.34	0.0153382
0.01	0.35	0.0147253
0.01	0.36	0.0141437
0.01	0.37	0.0135909
0.01	0.38	0.0130648
0.01	0.39	0.0125635
0.01	0.4	0.0120852
0.01	0.41	0.0116283
0.01	0.42	0.0111915
0.01	0.43	0.0107734
0.01	0.44	0.0103728
0.01	0.45	0.00998859
0.01	0.46	0.00961987
0.01	0.47	0.00926569
0.01	0.48	0.0089252
0.01	0.49	0.00859763
0.01	0.5	0.00828227
0.01	0.51	0.00797846
0.01	0.52	0.00768557
0.01	0.53	0.00740303
0.01	0.54	0.00713032
0.01	0.55	0.00686693
0.01	0.56	0.00661239
0.01	0.57	0.00636626
0.01	0.58	0.00612814
0.01	0.59	0.00589764
0.01	0.6	0.00567439
0.01	0.61	0.00545804
0.01	0.62	0.00524828
0.01	0.63	0.00504478
0.01	0.64	0.00484727
0.01	0.65	0.00465545
0.01	0.66	0.00446906
0.01	0.67	0.00428786
0.01	0.68	0.00411159
0.01	0.69	0.00394003
0.01	0.7	0.00377295
0.01	0.71	0.00361015
0.01	0.72	0.00345141
0.01	0.73	0.00329654
0.01	0.74	0.00314535
0.01	0.75	0.00299766
0.01	0.76	0.0028533
0.01	0.77	0.00271208
0.01	0.78	0.00257385
0.01	0.79	0.00243844
0.01	0.8	0.0023057
0.01	0.81	0.00217548
0.01	0.82	0.00204763
0.01	0.83	0.001922
0.01	0.84	0.00179846
0.01	0.85	0.00167686
0.01	0.86	0.00155708
0.01	0.87	0.00143898
0.01	0.88	0.00132242
0.01	0.89	0.00120729
0.01	0.9	0.00109346
0.01	0.91	0.000980802
0.01	0.92	0.000869197
0.01	0.93	0.000758523
0.01	0.94	0.000648662
0.01	0.95	0.000539495
0.01	0.96	0.000430905
0.01	0.97	0.000322776
0.01	0.98	0.000214993
0.01	0.99	0.000107439
0.01	1	0
0.02	0	1
0.02	0.01	0.69743
0.02	0.02	0.499554
0.02	0.03	0.376046
0.02	0.04	0.296576
0.02	0.05	0.242867
0.02	0.06	0.204747
0.02	0.07	0.17651
0.02	0.08	0.154834
0.02	0.09	0.137699
0.02	0.1	0.123823
0.02	0.11	0.112357
0.02	0.12	0.102722
0.02	0.13	0.0945078
0.02	0.14	0.0874187
0.02	0.15	0.0812347
0.02	0.16	0.0757899
0.02	0.17	0.0709562
0.02	0.18	0.0666337
0.02	0.19	0.0627432
0.02	0.2	0.0592211
0.02	0.21	0.0560156
0.02	0.22	0.0530843
0.02	0.23	0.0503923
0.02	0.24	0.0479102
0.02	0.25	0.0456134
0.02	0.26	0.043481
0.02	0.27	0.0414952
0.02	0.28	0.0396408
0.02	0.29	0.0379045
0.02	0.3	0.036275
0.02	0.31	0.0347423
0.02	0.32	0.0332976
0.02	0.33	0.0319333
0.02	0.34	0.0306426
0.02	0.35	0.0294195
0.02	0.36	0.0282586
0.02	0.37	0.0271552
0.02	0.38	0.026105
0.02	0.39	0.0251041
0.02	0.4	0.0241491
0.02	0.41	0.0232368
0.02	0.42	0.0223644
0.02	0.43	0.0215293
0.02	0.44	0.0207292
0.02	0.45	0.0199619
0.02	0.46	0.0192253
0.02	0.47	0.0185178
0.02	0.48	0.0178376
0.02	0.49	0.0171832
0.02	0.5	0.0165531
0.02	0.51	0.0159461
0.02	0.52	0.0153609
0.02	0.53	0.0147964
0.02	0.54	0.0142514
0.02	0.55	0.0137251
0.02	0.56	0.0132165
0.02	0.57	0.0127246
0.02	0.58	0.0122488
0.02	0.59	0.0117881
0.02	0.6	0.011342
0.02	0.61	0.0109096
0.02	0.62	0.0104904
0.02	0.63	0.0100837
0.02	0.64	0.00968895
0.02	0.65	0.00930558
0.02	0.66	0.00893306
0.02	0.67	0.00857089
0.02	0.68	0.00821858
0.02	0.69	0.00787568
0.02	0.7	0.00754173
0.02	0.71	0.00721632
0.02	0.72	0.00689904
0.02	0.73	0.00658949
0.02	0.74	0.0062873
0.02	0.75	0.00599209
0.02	0.76	0.00570353
0.02	0.77	0.00542125
0.02	0.78	0.00514495
0.02	0.79	0.00487429
0.02	0.8	0.00460896
0.02	0.81	0.00434866
0.02	0.82	0.0040931
0.02	0.83	0.00384198
0.02	0.84	0.00359503
0.02	0.85	0.00335197
0.02	0.86	0.00311253
0.02	0.87	0.00287645
0.02	0.88	0.00264347
0.02	0.89	0.00241333
0.02	0.9	0.00218579
0.02	0.91	0.00196059
0.02	0.92	0.00173749
0.02	0.93	0.00151626
0.02	0.94	0.00129665
0.02	0.95	0.00107843
0.02	0.96	0.000861365
0.02	0.97	0.000645219
0.02	0.98	0.000429763
0.02	0.99	0.000214767
0.02	1	0
0.03	0	1
0.03	0.01	0.790276
0.03	0.02	0.622617
0.03	0.03	0.498997
0.03	0.04	0.409341
0.03	0.05	0.343574
0.03	0.06	0.294248
0.03	0.07	0.256321
0.03	0.08	0.226451
0.03	0.09	0.202408
0.03	0.1	0.182681
0.03	0.11	0.166223
0.03	0.12	0.15229
0.03	0.13	0.140345
0.03	0.14	0.129989
0.03	0.15	0.120923
0.03	0.16	0.112917
0.03	0.17	0.105793
0.03	0.18	0.0994088
0.03	0.19	0.0936531
0.03	0.2	0.0884348
0.03	0.21	0.0836798
0.03	0.22	0.079327
0.03	0.23	0.0753257
0.03	0.24	0.0716334
0.03	0.25	0.0682144
0.03	0.26	0.0650381
0.03	0.27	0.0620786
0.03	0.28	0.0593135
0.03	0.29	0.0567234
0.03	0.3	0.0542916
0.03	0.31	0.0520035
0.03	0.32	0.049846
0.03	0.33	0.0478081
0.03	0.34	0.0458796
0.03	0.35	0.0440516
0.03	0.36	0.0423163
0.03	0.37	0.0406665
0.03	0.38	0.039096
0.03	0.39	0.037599
0.03	0.4	0.0361704
0.03	0.41	0.0348056
0.03	0.42	0.0335003
0.03	0.43	0.0322506
0.03	0.44	0.0310531
0.03	0.45	0.0299046
0.03	0.46	0.028802
0.03	0.47	0.0277428
0.03	0.48	0.0267245
0.03	0.49	0.0257446
0.03	0.5	0.0248012
0.03	0.51	0.0238922
0.03	0.52	0.0230158
0.03	0.53	0.0221704
0.03	0.54	0.0213542
0.03	0.55	0.0205659
0.03	0.56	0.019804
0.03	0.57	0.0190673
0.03	0.58	0.0183545
0.03	0.59	0.0176644
0.03	0.6	0.016996
0.03	0.61	0.0163483
0.03	0.62	0.0157202
0.03	0.63	0.0151109
0.03	0.64	0.0145195
0.03	0.65	0.0139451
0.03	0.66	0.0133869
0.03	0.67	0.0128443
0.03	0.68	0.0123164
0.03	0.69	0.0118026
0.03	0.7	0.0113022
0.03	0.71	0.0108146
0.03	0.72	0.0103391
0.03	0.73	0.00987528
0.03	0.74	0.00942243
0.03	0.75	0.00898006
0.03	0.76	0.00854763
0.03	0.77	0.00812463
0.03	0.78	0.00771057
0.03	0.79	0.00730496
0.03	0.8	0.00690733
0.03	0.81	0.00651725
0.03	0.82	0.00613425
0.03	0.83	0.00575792
0.03	0.84	0.00538783
0.03	0.85	0.00502357
0.03	0.86	0.00466473
0.03	0.87	0.00431092
0.03	0.88	0.00396176
0.03	0.89	0.00361686
0.03	0.9	0.00327584
0.03	0.91	0.00293834
0.03	0.92	0.00260399
0.03	0.93	0.00227243
0.03	0.94	0.0019433
0.03	0.95	0.00161625
0.03	0.96	0.00129093
0.03	0.97	0.000966996
0.03	0.98	0.000644091
0.03	0.99	0.000321873
0.03	1	0
0.04	0	1
0.04	0.01	0.841058
0.04	0.02	0.701641
0.04	0.03	0.587985
0.04	0.04	0.498217
0.04	0.05	0.427839
0.04	0.06	0.37235
0.04	0.07	0.328076
0.04	0.08	0.29224
0.04	0.09	0.262801
0.04	0.1	0.238271
0.04	0.11	0.217564
0.04	0.12	0.199872
0.04	0.13	0.184593
0.04	0.14	0.171271
0.04	0.15	0.159552
0.04	0.16	0.149163
0.04	0.17	0.139889
0.04	0.18	0.131556
0.04	0.19	0.124026
0.04	0.2	0.117185
0.04	0.21	0.110942
0.04	0.22	0.105218
0.04	0.23	0.0999503
0.04	0.24	0.0950837
0.04	0.25	0.0905729
0.04	0.26	0.0863788
0.04	0.27	0.0824679
0.04	0.28	0.0788114
0.04	0.29	0.0753843
0.04	0.3	0.0721649
0.04	0.31	0.0691342
0.04	0.32	0.0662754
0.04	0.33	0.0635738
0.04	0.34	0.0610163
0.04	0.35	0.0585914
0.04	0.36	0.0562887
0.04	0.37	0.0540989
0.04	0.38	0.0520139
0.04	0.39	0.0500259
0.04	0.4	0.0481284
0.04	0.41	0.0463153
0.04	0.42	0.0445808
0.04	0.43	0.0429201
0.04	0.44	0.0413284
0.04	0.45	0.0398016
0.04	0.46	0.0383358
0.04	0.47	0.0369274
0.04	0.48	0.0355732
0.04	0.49	0.03427
0.04	0.5	0.0330152
0.04	0.51	0.0318061
0.04	0.52	0.0306402
0.04	0.53	0.0295154
0.04	0.54	0.0284295
0.04	0.55	0.0273806
0.04	0.56	0.0263668
0.04	0.57	0.0253864
0.04	0.58	0.0244377
0.04	0.59	0.0235194
0.04	0.6	0.0226298
0.04	0.61	0.0217676
0.04	0.62	0.0209317
0.04	0.63	0.0201206
0.04	0.64	0.0193333
0.04	0.65	0.0185687
0.04	0.66	0.0178256
0.04	0.67	0.0171032
0.04	0.68	0.0164004
0.04	0.69	0.0157164
0.04	0.7	0.0150502
0.04	0.71	0.014401
0.04	0.72	0.0137679
0.04	0.73	0.0131503
0.04	0.74	0.0125474
0.04	0.75	0.0119584
0.04	0.76	0.0113826
0.04	0.77	0.0108193
0.04	0.78	0.010268
0.04	0.79	0.00972787
0.04	0.8	0.0091984
0.04	0.81	0.00867895
0.04	0.82	0.00816895
0.04	0.83	0.00766782
0.04	0.84	0.00717498
0.04	0.85	0.00668991
0.04	0.86	0.00621206
0.04	0.87	0.00574091
0.04	0.88	0.00527593
0.04	0.89	0.00481663
0.04	0.9	0.0043625
0.04	0.91	0.00391305
0.04	0.92	0.00346779
0.04	0.93	0.00302625
0.04	0.94	0.00258794
0.04	0.95	0.00215241
0.04	0.96	0.00171917
0.04	0.97	0.00128777
0.04	0.98	0.000857753
0.04	0.99	0.000428648
0.04	1	0
0.05	0	1
0.05	0.01	0.872316
0.05	0.02	0.754905
0.05	0.03	0.653084
0.05	0.04	0.567704
0.05	0.05	0.497215
0.05	0.06	0.439237
0.05	0.07	0.391395
0.05	0.08	0.351632
0.05	0.09	0.318283
0.05	0.1	0.29004
0.05	0.11	0.265888
0.05	0.12	0.24504
0.05	0.13	0.226886
0.05	0.14	0.210948
0.05	0.15	0.196851
0.05	0.16	0.184296
0.05	0.17	0.173043
0.05	0.18	0.1629
0.05	0.19	0.153709
0.05	0.2	0.14534
0.05	0.21	0.137685
0.05	0.22	0.130654
0.05	0.23	0.124174
0.05	0.24	0.118179
0.05	0.25	0.112615
0.05	0.26	0.107437
0.05	0.27	0.102603
0.05	0.28	0.0980803
0.05	0.29	0.093838
0.05	0.3	0.08985
0.05	0.31	0.0860934
0.05	0.32	0.082548
0.05	0.33	0.0791958
0.05	0.34	0.076021
0.05	0.35	0.0730094
0.05	0.36	0.0701486
0.05	0.37	0.0674272
0.05	0.38	0.064835
0.05	0.39	0.0623629
0.05	0.4	0.0600026
0.05	0.41	0.0577466
0.05	0.42	0.0555882
0.05	0.43	0.053521
0.05	0.44	0.0515394
0.05	0.45	0.0496382
0.05	0.46	0.0478127
0.05	0.47	0.0460584
0.05	0.48	0.0443713
0.05	0.49	0.0427476
0.05	0.5	0.041184
0.05	0.51	0.0396771
0.05	0.52	0.0382241
0.05	0.53	0.036822
0.05	0.54	0.0354683
0.05	0.55	0.0341606
0.05	0.56	0.0328966
0.05	0.57	0.0316742
0.05	0.58	0.0304913
0.05	0.59	0.029346
0.05	0.6	0.0282366
0.05	0.61	0.0271613
0.05	0.62	0.0261186
0.05	0.63	0.025107
0.05	0.64	0.0241249
0.05	0.65	0.0231711
0.05	0.66	0.0222442
0.05	0.67	0.0213429
0.05	0.68	0.0204662
0.05	0.69	0.0196127
0.05	0.7	0.0187815
0.05	0.71	0.0179715
0.05	0.72	0.0171817
0.05	0.73	0.0164111
0.05	0.74	0.0156588
0.05	0.75	0.0149238
0.05	0.76	0.0142053
0.05	0.77	0.0135024
0.05	0.78	0.0128144
0.05	0.79	0.0121405
0.05	0.8	0.0114797
0.05	0.81	0.0108315
0.05	0.82	0.0101951
0.05	0.83	0.00956966
0.05	0.84	0.00895462
0.05	0.85	0.00834926
0.05	0.86	0.00775291
0.05	0.87	0.00716491
0.05	0.88	0.00658461
0.05	0.89	0.00601139
0.05	0.9	0.00544463
0.05	0.91	0.0048837
0.05	0.92	0.004328
0.05	0.93	0.00377693
0.05	0.94	0.00322991
0.05	0.95	0.00268634
0.05	0.96	0.00214563
0.05	0.97	0.00160722
0.05	0.98	0.00107053
0.05	0.99	0.00053498
0.05	1	0
0.06	0	1
0.06	0.01	0.893299
0.06	0.02	0.792579
0.06	0.03	0.701741
0.06	0.04	0.622302
0.06	0.05	0.554078
0.06	0.06	0.495989
0.06	0.07	0.446634
0.06	0.08	0.404609
0.06	0.09	0.36866
0.06	0.1	0.337719
0.06	0.11	0.310909
0.06	0.12	0.287515
0.06	0.13	0.266962
0.06	0.14	0.248785
0.06	0.15	0.232608
0.06	0.16	0.218125
0.06	0.17	0.205089
0.06	0.18	0.193293
0.06	0.19	0.182571
0.06	0.2	0.17278
0.06	0.21	0.163803
0.06	0.22	0.155541
0.06	0.23	0.147912
0.06	0.24	0.140843
0.06	0.25	0.134273
0.06	0.26	0.12815
0.06	0.27	0.122428
0.06	0.28	0.117069
0.06	0.29	0.112038
0.06	0.3	0.107304
0.06	0.31	0.102842
0.06	0.32	0.0986278
0.06	0.33	0.0946409
0.06	0.34	0.0908629
0.06	0.35	0.0872774
0.06	0.36	0.0838697
0.06	0.37	0.0806268
0.06	0.38	0.0775367
0.06	0.39	0.0745886
0.06	0.4	0.0717731
0.06	0.41	0.0690811
0.06	0.42	0.0665048
0.06	0.43	0.0640368
0.06	0.44	0.0616705
0.06	0.45	0.0593997
0.06	0.46	0.0572189
0.06	0.47	0.0551227
0.06	0.48	0.0531065
0.06	0.49	0.0511659
0.06	0.5	0.0492966
0.06	0.51	0.0474951
0.06	0.52	0.0457575
0.06	0.53	0.0440808
0.06	0.54	0.0424618
0.06	0.55	0.0408976
0.06	0.56	0.0393856
0.06	0.57	0.0379231
0.06	0.58	0.0365078
0.06	0.59	0.0351374
0.06	0.6	0.0338098
0.06	0.61	0.032523
0.06	0.62	0.0312751
0.06	0.63	0.0300643
0.06	0.64	0.0288889
0.06	0.65	0.0277471
0.06	0.66	0.0266376
0.06	0.67	0.0255587
0.06	0.68	0.0245091
0.06	0.69	0.0234874
0.06	0.7	0.0224922
0.06	0.71	0.0215224
0.06	0.72	0.0205768
0.06	0.73	0.0196541
0.06	0.74	0.0187532
0.06	0.75	0.0178731
0.06	0.76	0.0170128
0.06	0.77	0.0161712
0.06	0.78	0.0153473
0.06	0.79	0.0145402
0.06	0.8	0.0137489
0.06	0.81	0.0129726
0.06	0.82	0.0122104
0.06	0.83	0.0114615
0.06	0.84	0.0107249
0.06	0.85	0.00999989
0.06	0.86	0.00928567
0.06	0.87	0.00858145
0.06	0.88	0.00788645
0.06	0.89	0.00719992
0.06	0.9	0.00652111
0.06	0.91	0.00584929
0.06	0.92	0.00518373
0.06	0.93	0.00452372
0.06	0.94	0.00386854
0.06	0.95	0.00321749
0.06	0.96	0.00256988
0.06	0.97	0.00192502
0.06	0.98	0.0012822
0.06	0.99	0.000640761
0.06	1	0
0.07	0	1
0.07	0.01	0.908303
0.07	0.02	0.82037
0.07	0.03	0.738999
0.07	0.04	0.665684
0.07	0.05	0.600807
0.07	0.06	0.544008
0.07	0.07	0.494541
0.07	0.08	0.451513
0.07	0.09	0.414028
0.07	0.1	0.381268
0.07	0.11	0.352513
0.07	0.12	0.32715
0.07	0.13	0.304663
0.07	0.14	0.284622
0.07	0.15	0.26667
0.07	0.16	0.250509
0.07	0.17	0.235893
0.07	0.18	0.222615
0.07	0.19	0.210501
0.07	0.2	0.199406
0.07	0.21	0.189206
0.07	0.22	0.179797
0.07	0.23	0.17109
0.07	0.24	0.163008
0.07	0.25	0.155484
0.07	0.26	0.148462
0.07	0.27	0.141892
0.07	0.28	0.135731
0.07	0.29	0.12994
0.07	0.3	0.124488
0.07	0.31	0.119343
0.07	0.32	0.114481
0.07	0.33	0.109878
0.07	0.34	0.105513
0.07	0.35	0.101368
0.07	0.36	0.0974268
0.07	0.37	0.0936742
0.07	0.38	0.0900969
0.07	0.39	0.0866827
0.07	0.4	0.0834206
0.07	0.41	0.0803007
0.07	0.42	0.0773139
0.07	0.43	0.0744518
0.07	0.44	0.0717069
0.07	0.45	0.0690721
0.07	0.46	0.0665411
0.07	0.47	0.0641079
0.07	0.48	0.061767
0.07	0.49	0.0595134
0.07	0.5	0.0573424
0.07	0.51	0.0552496
0.07	0.52	0.053231
0.07	0.53	0.0512827
0.07	0.54	0.0494012
0.07	0.55	0.0475832
0.07	0.56	0.0458256
0.07	0.57	0.0441255
0.07	0.58	0.04248
0.07	0.59	0.0408867
0.07	0.6	0.0393429
0.07	0.61	0.0378465
0.07	0.62	0.0363953
0.07	0.63	0.034987
0.07	0.64	0.0336198
0.07	0.65	0.0322917
0.07	0.66	0.031001
0.07	0.67	0.0297459
0.07	0.68	0.0285247
0.07	0.69	0.027336
0.07	0.7	0.0261782
0.07	0.71	0.0250498
0.07	0.72	0.0239494
0.07	0.73	0.0228757
0.07	0.74	0.0218275
0.07	0.75	0.0208033
0.07	0.76	0.0198021
0.07	0.77	0.0188226
0.07	0.78	0.0178638
0.07	0.79	0.0169245
0.07	0.8	0.0160036
0.07	0.81	0.0151001
0.07	0.82	0.014213
0.07	0.83	0.0133412
0.07	0.84	0.0124839
0.07	0.85	0.0116401
0.07	0.86	0.0108088
0.07	0.87	0.00998906
0.07	0.88	0.0091801
0.07	0.89	0.00838098
0.07	0.9	0.00759084
0.07	0.91	0.00680883
0.07	0.92	0.00603411
0.07	0.93	0.00526583
0.07	0.94	0.00450318
0.07	0.95	0.00374533
0.07	0.96	0.00299148
0.07	0.97	0.00224083
0.07	0.98	0.00149256
0.07	0.99	0.000745881
0.07	1	0
0.08	0	1
0.08	0.01	0.919541
0.08	0.02	0.841601
0.08	0.03	0.768201
0.08	0.04	0.70063
0.08	0.05	0.639456
0.08	0.06	0.584696
0.08	0.07	0.536011
0.08	0.08	0.492871
0.08	0.09	0.454672
0.08	0.1	0.420812
0.08	0.11	0.390726
0.08	0.12	0.363909
0.08	0.13	0.339918
0.08	0.14	0.318371
0.08	0.15	0.298941
0.08	0.16	0.28135
0.08	0.17	0.265361
0.08	0.18	0.250772
0.08	0.19	0.237413
0.08	0.2	0.225137
0.08	0.21	0.213819
0.08	0.22	0.203352
0.08	0.23	0.193644
0.08	0.24	0.184614
0.08	0.25	0.176194
0.08	0.26	0.168322
0.08	0.27	0.160947
0.08	0.28	0.154022
0.08	0.29	0.147506
0.08	0.3	0.141364
0.08	0.31	0.135563
0.08	0.32	0.130076
0.08	0.33	0.124877
0.08	0.34	0.119944
0.08	0.35	0.115256
0.08	0.36	0.110796
0.08	0.37	0.106547
0.08	0.38	0.102495
0.08	0.39	0.0986253
0.08	0.4	0.0949268
0.08	0.41	0.091388
0.08	0.42	0.087999
0.08	0.43	0.0847505
0.08	0.44	0.0816339
0.08	0.45	0.0786416
0.08	0.46	0.0757664
0.08	0.47	0.0730016
0.08	0.48	0.0703411
0.08	0.49	0.0677793
0.08	0.5	0.0653108
0.08	0.51	0.0629309
0.08	0.52	0.0606349
0.08	0.53	0.0584186
0.08	0.54	0.056278
0.08	0.55	0.0542093
0.08	0.56	0.0522091
0.08	0.57	0.0502741
0.08	0.58	0.0484011
0.08	0.59	0.0465872
0.08	0.6	0.0448296
0.08	0.61	0.0431258
0.08	0.62	0.0414732
0.08	0.63	0.0398694
0.08	0.64	0.0383123
0.08	0.65	0.0367997
0.08	0.66	0.0353295
0.08	0.67	0.0338998
0.08	0.68	0.0325087
0.08	0.69	0.0311545
0.08	0.7	0.0298354
0.08	0.71	0.0285498
0.08	0.72	0.0272961
0.08	0.73	0.0260727
0.08	0.74	0.0248782
0.08	0.75	0.0237112
0.08	0.76	0.0225702
0.08	0.77	0.0214541
0.08	0.78	0.0203614
0.08	0.79	0.0192909
0.08	0.8	0.0182414
0.08	0.81	0.0172117
0.08	0.82	0.0162006
0.08	0.83	0.0152071
0.08	0.84	0.0142299
0.08	0.85	0.0132681
0.08	0.86	0.0123206
0.08	0.87	0.0113863
0.08	0.88	0.0104642
0.08	0.89	0.00955335
0.08	0.9	0.00865272
0.08	0.91	0.00776133
0.08	0.92	0.00687825
0.08	0.93	0.0060025
0.08	0.94	0.00513317
0.08	0.95	0.00426931
0.08	0.96	0.00341
0.08	0.97	0.00255433
0.08	0.98	0.00170137
0.08	0.99	0.000850234
0.08	1	0
0.09	0	1
0.09	0.01	0.928262
0.09	0.02	0.85829
0.09	0.03	0.791576
0.09	0.04	0.729178
0.09	0.05	0.671691
0.09	0.06	0.619309
0.09	0.07	0.571937
0.09	0.08	0.529289
0.09	0.09	0.490979
0.09	0.1	0.456581
0.09	0.11	0.42567
0.09	0.12	0.397842
0.09	0.13	0.372729
0.09	0.14	0.350003
0.09	0.15	0.329374
0.09	0.16	0.310589
0.09	0.17	0.293428
0.09	0.18	0.2777
0.09	0.19	0.263242
0.09	0.2	0.24991
0.09	0.21	0.237582
0.09	0.22	0.226149
0.09	0.23	0.21552
0.09	0.24	0.205613
0.09	0.25	0.196356
0.09	0.26	0.187688
0.09	0.27	0.179553
0.09	0.28	0.171905
0.09	0.29	0.164699
0.09	0.3	0.157899
0.09	0.31	0.15147
0.09	0.32	0.145383
0.09	0.33	0.139611
0.09	0.34	0.13413
0.09	0.35	0.128918
0.09	0.36	0.123955
0.09	0.37	0.119225
0.09	0.38	0.114711
0.09	0.39	0.110398
0.09	0.4	0.106274
0.09	0.41	0.102327
0.09	0.42	0.0985446
0.09	0.43	0.0949181
0.09	0.44	0.0914377
0.09	0.45	0.088095
0.09	0.46	0.0848822
0.09	0.47	0.0817919
0.09	0.48	0.0788175
0.09	0.49	0.0759527
0.09	0.5	0.0731918
0.09	0.51	0.0705293
0.09	0.52	0.0679602
0.09	0.53	0.0654798
0.09	0.54	0.0630838
0.09	0.55	0.060768
0.09	0.56	0.0585284
0.09	0.57	0.0563616
0.09	0.58	0.0542639
0.09	0.59	0.0522323
0.09	0.6	0.0502635
0.09	0.61	0.0483547
0.09	0.62	0.0465031
0.09	0.63	0.0447061
0.09	0.64	0.0429613
0.09	0.65	0.0412661
0.09	0.66	0.0396184
0.09	0.67	0.038016
0.09	0.68	0.0364567
0.09	0.69	0.0349387
0.09	0.7	0.03346
0.09	0.71	0.0320187
0.09	0.72	0.0306131
0.09	0.73	0.0292415
0.09	0.74	0.0279022
0.09	0.75	0.0265936
0.09	0.76	0.0253143
0.09	0.77	0.0240627
0.09	0.78	0.0228374
0.09	0.79	0.0216369
0.09	0.8	0.0204599
0.09	0.81	0.0193052
0.09	0.82	0.0181712
0.09	0.83	0.017057
0.09	0.84	0.0159611
0.09	0.85	0.0148823
0.09	0.86	0.0138196
0.09	0.87	0.0127717
0.09	0.88	0.0117375
0.09	0.89	0.0107158
0.09	0.9	0.00970564
0.09	0.91	0.00870582
0.09	0.92	0.00771529
0.09	0.93	0.00673299
0.09	0.94	0.00575787
0.09	0.95	0.00478889
0.09	0.96	0.00382501
0.09	0.97	0.0028652
0.09	0.98	0.00190844
0.09	0.99	0.000953713
0.09	1	0
0.1	0	1
0.1	0.01	0.935218
0.1	0.02	0.871721
0.1	0.03	0.810634
0.1	0.04	0.752816
0.1	0.05	0.69882
0.1	0.06	0.648914
0.1	0.07	0.603139
0.1	0.08	0.561369
0.1	0.09	0.523374
0.1	0.1	0.488865
0.1	0.11	0.457531
0.1	0.12	0.42906
0.1	0.13	0.403154
0.1	0.14	0.379539
0.1	0.15	0.357964
0.1	0.16	0.338204
0.1	0.17	0.320062
0.1	0.18	0.30336
0.1	0.19	0.287945
0.1	0.2	0.273681
0.1	0.21	0.260449
0.1	0.22	0.248144
0.1	0.23	0.236675
0.1	0.24	0.225961
0.1	0.25	0.21593
0.1	0.26	0.20652
0.1	0.27	0.197675
0.1	0.28	0.189345
0.1	0.29	0.181488
0.1	0.3	0.174063
0.1	0.31	0.167037
0.1	0.32	0.160377
0.1	0.33	0.154055
0.1	0.34	0.148047
0.1	0.35	0.14233
0.1	0.36	0.136883
0.1	0.37	0.131687
0.1	0.38	0.126726
0.1	0.39	0.121983
0.1	0.4	0.117446
0.1	0.41	0.113101
0.1	0.42	0.108936
0.1	0.43	0.104941
0.1	0.44	0.101105
0.1	0.45	0.0974197
0.1	0.46	0.0938765
0.1	0.47	0.0904675
0.1	0.48	0.0871854
0.1	0.49	0.0840234
0.1	0.5	0.0809753
0.1	0.51	0.0780353
0.1	0.52	0.0751978
0.1	0.53	0.0724579
0.1	0.54	0.0698105
0.1	0.55	0.0672514
0.1	0.56	0.0647762
0.1	0.57	0.062381
0.1	0.58	0.0600619
0.1	0.59	0.0578155
0.1	0.6	0.0556384
0.1	0.61	0.0535274
0.1	0.62	0.0514795
0.1	0.63	0.0494918
0.1	0.64	0.0475615
0.1	0.65	0.0456861
0.1	0.66	0.043863
0.1	0.67	0.0420899
0.1	0.68	0.0403645
0.1	0.69	0.0386845
0.1	0.7	0.037048
0.1	0.71	0.0354528
0.1	0.72	0.033897
0.1	0.73	0.0323788
0.1	0.74	0.0308962
0.1	0.75	0.0294477
0.1	0.76	0.0280314
0.1	0.77	0.0266458
0.1	0.78	0.0252892
0.1	0.79	0.0239601
0.1	0.8	0.022657
0.1	0.81	0.0213784
0.1	0.82	0.0201229
0.1	0.83	0.0188891
0.1	0.84	0.0176756
0.1	0.85	0.0164811
0.1	0.86	0.0153043
0.1	0.87	0.0141439
0.1	0.88	0.0129986
0.1	0.89	0.0118672
0.1	0.9	0.0107485
0.1	0.91	0.00964132
0.1	0.92	0.00854438
0.1	0.93	0.00745654
0.1	0.94	0.00637665
0.1	0.95	0.00530354
0.1	0.96	0.00423608
0.1	0.97	0.00317313
0.1	0.98	0.00211354
0.1	0.99	0.00105621
0.1	1	0
0.11	0	1
0.11	0.01	0.940888
0.11	0.02	0.882741
0.11	0.03	0.826424
0.11	0.04	0.772633
0.11	0.05	0.721858
0.11	0.06	0.674388
0.11	0.07	0.630335
0.11	0.08	0.589674
0.11	0.09	0.552282
0.11	0.1	0.517974
0.11	0.11	0.486529
0.11	0.12	0.457712
0.11	0.13	0.43129
0.11	0.14	0.407036
0.11	0.15	0.384738
0.11	0.16	0.364203
0.11	0.17	0.345255
0.11	0.18	0.327734
0.11	0.19	0.311498
0.11	0.2	0.296421
0.11	0.21	0.28239
0.11	0.22	0.269305
0.11	0.23	0.257076
0.11	0.24	0.245626
0.11	0.25	0.234884
0.11	0.26	0.224787
0.11	0.27	0.215281
0.11	0.28	0.206315
0.11	0.29	0.197845
0.11	0.3	0.189831
0.11	0.31	0.182237
0.11	0.32	0.175033
0.11	0.33	0.168187
0.11	0.34	0.161676
0.11	0.35	0.155474
0.11	0.36	0.149561
0.11	0.37	0.143916
0.11	0.38	0.138523
0.11	0.39	0.133365
0.11	0.4	0.128427
0.11	0.41	0.123696
0.11	0.42	0.119159
0.11	0.43	0.114805
0.11	0.44	0.110623
0.11	0.45	0.106604
0.11	0.46	0.102738
0.11	0.47	0.0990174
0.11	0.48	0.0954343
0.11	0.49	0.0919815
0.11	0.5	0.0886521
0.11	0.51	0.08544
0.11	0.52	0.0823393
0.11	0.53	0.0793444
0.11	0.54	0.0764503
0.11	0.55	0.0736521
0.11	0.56	0.0709452
0.11	0.57	0.0683253
0.11	0.58	0.0657885
0.11	0.59	0.0633307
0.11	0.6	0.0609485
0.11	0.61	0.0586383
0.11	0.62	0.0563969
0.11	0.63	0.0542211
0.11	0.64	0.052108
0.11	0.65	0.0500548
0.11	0.66	0.0480588
0.11	0.67	0.0461172
0.11	0.68	0.0442278
0.11	0.69	0.042388
0.11	0.7	0.0405956
0.11	0.71	0.0388484
0.11	0.72	0.0371443
0.11	0.73	0.0354813
0.11	0.74	0.0338572
0.11	0.75	0.0322703
0.11	0.76	0.0307187
0.11	0.77	0.0292007
0.11	0.78	0.0277143
0.11	0.79	0.0262581
0.11	0.8	0.0248302
0.11	0.81	0.0234292
0.11	0.82	0.0220535
0.11	0.83	0.0207015
0.11	0.84	0.0193717
0.11	0.85	0.0180627
0.11	0.86	0.0167731
0.11	0.87	0.0155014
0.11	0.88	0.0142463
0.11	0.89	0.0130064
0.11	0.9	0.0117803
0.11	0.91	0.0105669
0.11	0.92	0.00936466
0.11	0.93	0.00817242
0.11	0.94	0.00698887
0.11	0.95	0.00581275
0.11	0.96	0.0046428
0.11	0.97	0.00347779
0.11	0.98	0.00231648
0.11	0.99	0.00115763
0.11	1	0
0.12	0	1
0.12	0.01	0.945594
0.12	0.02	0.89193
0.12	0.03	0.839688
0.12	0.04	0.789434
0.12	0.05	0.741593
0.12	0.06	0.696446
0.12	0.07	0.65414
0.12	0.08	0.61471
0.12	0.09	0.578107
0.12	0.1	0.54422
0.12	0.11	0.512899
0.12	0.12	0.483972
0.12	0.13	0.457258
0.12	0.14	0.432576
0.12	0.15	0.40975
0.12	0.16	0.388617
0.12	0.17	0.369022
0.12	0.18	0.350823
0.12	0.19	0.333893
0.12	0.2	0.318116
0.12	0.21	0.303385
0.12	0.22	0.289608
0.12	0.23	0.2767
0.12	0.24	0.264584
0.12	0.25	0.253194
0.12	0.26	0.242466
0.12	0.27	0.232348
0.12	0.28	0.222789
0.12	0.29	0.213746
0.12	0.3	0.205179
0.12	0.31	0.197051
0.12	0.32	0.18933
0.12	0.33	0.181987
0.12	0.34	0.174995
0.12	0.35	0.16833
0.12	0.36	0.16197
0.12	0.37	0.155895
0.12	0.38	0.150086
0.12	0.39	0.144527
0.12	0.4	0.139202
0.12	0.41	0.134098
0.12	0.42	0.1292
0.12	0.43	0.124498
0.12	0.44	0.11998
0.12	0.45	0.115635
0.12	0.46	0.111456
0.12	0.47	0.107431
0.12	0.48	0.103554
0.12	0.49	0.0998174
0.12	0.5	0.096213
0.12	0.51	0.0927347
0.12	0.52	0.0893762
0.12	0.53	0.0861316
0.12	0.54	0.0829955
0.12	0.55	0.0799628
0.12	0.56	0.0770285
0.12	0.57	0.0741881
0.12	0.58	0.0714372
0.12	0.59	0.0687717
0.12	0.6	0.0661877
0.12	0.61	0.0636816
0.12	0.62	0.0612498
0.12	0.63	0.058889
0.12	0.64	0.0565959
0.12	0.65	0.0543676
0.12	0.66	0.0522011
0.12	0.67	0.0500936
0.12	0.68	0.0480425
0.12	0.69	0.0460452
0.12	0.7	0.0440992
0.12	0.71	0.0422021
0.12	0.72	0.0403517
0.12	0.73	0.0385457
0.12	0.74	0.0367821
0.12	0.75	0.0350587
0.12	0.76	0.0333735
0.12	0.77	0.0317247
0.12	0.78	0.0301102
0.12	0.79	0.0285284
0.12	0.8	0.0269774
0.12	0.81	0.0254555
0.12	0.82	0.023961
0.12	0.83	0.0224923
0.12	0.84	0.0210477
0.12	0.85	0.0196256
0.12	0.86	0.0182245
0.12	0.87	0.0168429
0.12	0.88	0.0154792
0.12	0.89	0.0141321
0.12	0.9	0.0128
0.12	0.91	0.0114816
0.12	0.92	0.0101753
0.12	0.93	0.0088799
0.12	0.94	0.00759391
0.12	0.95	0.00631598
0.12	0.96	0.00504476
0.12	0.97	0.0037789
0.12	0.98	0.00251704
0.12	0.99	0.00125785
0.12	1	0
0.13	0	1
0.13	0.01	0.949558
0.13	0.02	0.899699
0.13	0.03	0.850965
0.13	0.04	0.803821
0.13	0.05	0.758633
0.13	0.06	0.715663
0.13	0.07	0.675068
0.13	0.08	0.63692
0.13	0.09	0.601217
0.13	0.1	0.567901
0.13	0.11	0.536876
0.13	0.12	0.508019
0.13	0.13	0.481194
0.13	0.14	0.456259
0.13	0.15	0.433072
0.13	0.16	0.411493
0.13	0.17	0.391392
0.13	0.18	0.372645
0.13	0.19	0.355137
0.13	0.2	0.338764
0.13	0.21	0.323429
0.13	0.22	0.309045
0.13	0.23	0.295532
0.13	0.24	0.282819
0.13	0.25	0.27084
0.13	0.26	0.259537
0.13	0.27	0.248856
0.13	0.28	0.23875
0.13	0.29	0.229173
0.13	0.3	0.220088
0.13	0.31	0.211458
0.13	0.32	0.203251
0.13	0.33	0.195437
0.13	0.34	0.187989
0.13	0.35	0.180883
0.13	0.36	0.174097
0.13	0.37	0.167609
0.13	0.38	0.161401
0.13	0.39	0.155457
0.13	0.4	0.149759
0.13	0.41	0.144294
0.13	0.42	0.139048
0.13	0.43	0.134008
0.13	0.44	0.129164
0.13	0.45	0.124504
0.13	0.46	0.120019
0.13	0.47	0.115699
0.13	0.48	0.111536
0.13	0.49	0.107522
0.13	0.5	0.103649
0.13	0.51	0.099911
0.13	0.52	0.0963005
0.13	0.53	0.0928118
0.13	0.54	0.0894389
0.13	0.55	0.0861765
0.13	0.56	0.0830193
0.13	0.57	0.0799627
0.13	0.58	0.0770019
0.13	0.59	0.0741325
0.13	0.6	0.0713506
0.13	0.61	0.068652
0.13	0.62	0.0660332
0.13	0.63	0.0634904
0.13	0.64	0.0610204
0.13	0.65	0.0586199
0.13	0.66	0.0562857
0.13	0.67	0.054015
0.13	0.68	0.0518047
0.13	0.69	0.0496523
0.13	0.7	0.047555
0.13	0.71	0.0455103
0.13	0.72	0.0435157
0.13	0.73	0.041569
0.13	0.74	0.0396677
0.13	0.75	0.0378098
0.13	0.76	0.0359929
0.13	0.77	0.0342152
0.13	0.78	0.0324745
0.13	0.79	0.0307689
0.13	0.8	0.0290964
0.13	0.81	0.0274553
0.13	0.82	0.0258437
0.13	0.83	0.0242597
0.13	0.84	0.0227018
0.13	0.85	0.0211681
0.13	0.86	0.0196571
0.13	0.87	0.018167
0.13	0.88	0.0166962
0.13	0.89	0.0152433
0.13	0.9	0.0138065
0.13	0.91	0.0123844
0.13	0.92	0.0109755
0.13	0.93	0.00957826
0.13	0.94	0.00819116
0.13	0.95	0.00681274
0.13	0.96	0.00544155
0.13	0.97	0.00407613
0.13	0.98	0.00271502
0.13	0.99	0.00135679
0.13	1	0
0.14	0	1
0.14	0.01	0.952937
0.14	0.02	0.906342
0.14	0.03	0.860652
0.14	0.04	0.816252
0.14	0.05	0.773457
0.14	0.06	0.732503
0.14	0.07	0.69355
0.14	0.08	0.656686
0.14	0.09	0.62194
0.14	0.1	0.589292
0.14	0.11	0.558684
0.14	0.12	0.530034
0.14	0.13	0.503242
0.14	0.14	0.478196
0.14	0.15	0.454785
0.14	0.16	0.432893
0.14	0.17	0.412409
0.14	0.18	0.393227
0.14	0.19	0.375247
0.14	0.2	0.358374
0.14	0.21	0.342522
0.14	0.22	0.327611
0.14	0.23	0.313566
0.14	0.24	0.300321
0.14	0.25	0.287813
0.14	0.26	0.275987
0.14	0.27	0.264792
0.14	0.28	0.254181
0.14	0.29	0.244111
0.14	0.3	0.234544
0.14	0.31	0.225444
0.14	0.32	0.21678
0.14	0.33	0.208522
0.14	0.34	0.200643
0.14	0.35	0.193118
0.14	0.36	0.185926
0.14	0.37	0.179044
0.14	0.38	0.172455
0.14	0.39	0.166141
0.14	0.4	0.160085
0.14	0.41	0.154273
0.14	0.42	0.14869
0.14	0.43	0.143325
0.14	0.44	0.138165
0.14	0.45	0.1332
0.14	0.46	0.128419
0.14	0.47	0.123812
0.14	0.48	0.119371
0.14	0.49	0.115087
0.14	0.5	0.110953
0.14	0.51	0.106961
0.14	0.52	0.103105
0.14	0.53	0.0993776
0.14	0.54	0.0957734
0.14	0.55	0.0922864
0.14	0.56	0.0889113
0.14	0.57	0.085643
0.14	0.58	0.0824766
0.14	0.59	0.0794076
0.14	0.6	0.0764315
0.14	0.61	0.0735442
0.14	0.62	0.0707419
0.14	0.63	0.0680206
0.14	0.64	0.0653769
0.14	0.65	0.0628072
0.14	0.66	0.0603084
0.14	0.67	0.0578771
0.14	0.68	0.0555105
0.14	0.69	0.0532055
0.14	0.7	0.0509594
0.14	0.71	0.0487695
0.14	0.72	0.0466332
0.14	0.73	0.0445479
0.14	0.74	0.0425112
0.14	0.75	0.0405208
0.14	0.76	0.0385744
0.14	0.77	0.0366697
0.14	0.78	0.0348047
0.14	0.79	0.0329771
0.14	0.8	0.0311851
0.14	0.81	0.0294265
0.14	0.82	0.0276994
0.14	0.83	0.026002
0.14	0.84	0.0243324
0.14	0.85	0.0226888
0.14	0.86	0.0210693
0.14	0.87	0.0194723
0.14	0.88	0.017896
0.14	0.89	0.0163387
0.14	0.9	0.0147988
0.14	0.91	0.0132746
0.14	0.92	0.0117645
0.14	0.93	0.0102668
0.14	0.94	0.00878002
0.14	0.95	0.00730253
0.14	0.96	0.00583277
0.14	0.97	0.00436919
0.14	0.98	0.00291023
0.14	0.99	0.00145434
0.14	1	0
0.15	0	1
0.15	0.01	0.95585
0.15	0.02	0.91208
0.15	0.03	0.869049
0.15	0.04	0.827079
0.15	0.05	0.78644
0.15	0.06	0.747344
0.15	0.07	0.709943