VARIABLES = "X","Y","u"
ZONE I=101,J=101,F=POINT
